LAMMPS data file via write_data, version 23 Mar 2016-ICMS, timestep = 100000

3360 atoms
3 atom types
2880 bonds
2 bond types
0 angles
2 angle types
0 dihedrals
1 dihedral types
0 impropers 
1 improper types

-7.9238210000000002e+00 7.9238210000000002e+00 xlo xhi
-7.9238210000000002e+00 7.9238210000000002e+00 ylo yhi
-7.9238210000000002e+00 7.9238210000000002e+00 zlo zhi

3 extra bond per atom
10 extra angle per atom
10 extra dihedral per atom
10 extra improper per atom
50 extra special per atom

Masses

1 1
2 1
3 1

Atoms # molecular

542 2 2 -6.9749078716092940e+00 -6.1735744789792202e+00 -6.3485257009075475e+00 1 1 1
1498 3 2 -1.9942387570823965e-03 -3.6127512214167870e+00 -3.3511164263381183e+00 1 0 0
2626 5 2 -1.7135713420978835e+00 -7.8206541946203290e+00 -7.9360188617632910e-01 1 1 1
2657 4 2 -1.2369799941543356e+00 -5.3151192653217540e+00 -7.2097275574841975e+00 0 0 1
434 4 2 -7.5970153779146763e+00 -3.7210959840004008e+00 -2.9503730292980412e+00 1 0 0
2057 4 2 -7.6349446675167183e+00 -7.1871806778507557e+00 -5.7785441079679789e-01 1 0 0
3203 1 3 -1.6116967757222223e+00 -6.5076396561442591e+00 -5.8709069608747910e+00 1 0 0
172 2 2 -8.8696657898467679e-01 -4.3786432261675472e+00 -7.4384720399714128e+00 1 0 0
2489 2 2 -1.1061969480066125e+00 -2.0432587519991321e+00 -5.2742106496824022e+00 1 0 1
2968 3 2 -6.7904927173017651e+00 -6.1341435277304281e+00 -7.4303831473377402e+00 1 0 1
2652 2 2 -2.5797180169257179e+00 -6.6335924327899409e+00 -6.3553634183102012e+00 0 0 1
1805 5 2 -5.7443050234022923e+00 -5.3459935799180369e-01 -5.0311151640252501e+00 1 0 1
2555 5 2 -4.9831920167618824e+00 -5.9853317073021506e+00 -7.3134641145973269e+00 1 0 1
949 2 2 -4.6227402133603039e+00 -5.2806199683947641e+00 -6.5395167525272040e+00 1 0 1
1892 2 2 -6.8905258629973805e+00 -6.7189722258463140e+00 -1.0806624379483403e+00 1 1 0
308 3 2 -5.2527954382238855e+00 -4.9108747961520338e+00 -7.1689061476331828e+00 1 0 1
192 2 2 -7.4047151595829348e+00 -5.3177732283158816e+00 -6.7048632581151804e+00 1 0 1
2963 3 2 -7.0643652651519249e+00 -5.1133949596621555e+00 -7.5469181505380565e+00 1 0 1
2556 5 2 -5.4853034806506100e+00 -5.5528090007016564e+00 -6.5470506396682149e+00 1 0 1
2557 4 2 -4.8696642950440889e+00 -4.3564818432567689e+00 -6.4678555778256444e+00 1 0 1
2656 5 2 -1.3323568941867268e+00 -4.7948875856596764e+00 -6.3727387949368675e+00 0 0 1
3121 1 1 -6.6132762375613199e+00 -5.3045846182564171e-01 -8.6213534589808827e-01 1 0 0
2490 1 1 -3.7719704493472184e-01 -1.3971826939594607e+00 -5.0758985974409780e+00 1 0 1
2166 5 2 -7.5285327778577527e-01 -2.1380892959286188e+00 -6.5324954893614731e+00 0 0 1
2362 2 2 -1.0386113075819829e+00 -7.6532175229481485e+00 -1.6086773645522214e+00 1 0 0
2505 5 2 -3.2500045435053200e+00 -4.6766801011858670e+00 -6.3578589897828071e+00 0 0 1
2312 2 2 -2.9158820877828832e-03 -5.6695677108626699e+00 -5.6499165192318648e+00 1 1 0
1646 5 2 -1.4545123373111575e+00 -1.0407586510442828e+00 -4.1891779005595753e+00 0 0 1
2501 1 1 -4.7726097062602033e+00 -2.9531923057166098e+00 -7.3862001211119654e+00 0 0 1
409 2 2 -3.5340211901327537e-02 -2.2852612480418935e+00 -5.3735043584519699e+00 1 0 1
1433 3 2 -3.4896911677825537e+00 -3.2426798985265943e+00 -7.4496835633189296e+00 1 0 1
715 5 2 -2.4857147538447369e-01 -6.9817410042052259e+00 -7.7214121086471037e+00 1 1 1
2367 4 2 -1.5179137566653578e-01 -5.5490266562676709e+00 -2.6904101391038182e+00 1 0 0
1566 5 2 -7.1806162179193604e+00 -8.6047574007322913e-01 -6.4511091566079850e+00 1 0 1
2502 2 2 -5.2466782087760384e+00 -3.7603497228982810e+00 -7.4182553614895346e+00 0 0 1
1434 4 2 -3.7419282070843924e+00 -2.5282596332651970e+00 -6.8171884800722751e+00 1 0 1
379 2 2 -7.6380834928877672e-01 -5.3357678125837102e+00 -1.5694638093731711e-01 1 0 1
2720 1 1 -6.8836650339318854e+00 -1.2008488963853765e+00 -1.7313085152046859e+00 0 0 1
1996 5 2 -6.2455198943951977e+00 -1.2337361278740643e-01 -7.1938623435059572e+00 1 0 1
3178 3 2 -7.1040842447399291e+00 -8.5825806038351593e-01 -3.1909737169375911e+00 1 -1 1
1200 1 1 -7.5698079042902133e+00 -2.7924788860046906e-01 -4.0309993386214316e-01 2 0 1
1567 4 2 -7.5477655437024129e+00 -1.7460247027942368e+00 -6.3020650951358013e+00 1 0 1
1645 5 2 -9.2426458213268992e-01 -3.5693625402720724e-01 -4.5627320467409618e+00 0 0 1
1647 4 2 -1.2321048786688358e+00 -1.0985097336979599e+00 -3.2241479056406552e+00 0 0 1
3267 1 3 -4.1295139112041230e+00 -7.3963238682690751e+00 -1.0640867543667871e+00 1 0 2
2167 4 2 -9.1262287037121126e-01 -2.6181769553392988e+00 -7.4427314395315394e+00 0 0 1
2870 1 1 -6.6136787703171311e+00 -7.5909490259700103e+00 -4.9204443475406299e+00 1 0 1
2681 1 1 -7.5296446917996400e+00 -3.6684151599991499e+00 -1.8764185561622948e+00 1 0 1
2866 5 2 -6.1317637576419797e+00 -6.5939781226253915e+00 -5.0528521261414872e+00 1 0 1
1469 2 2 -4.6964706988758120e+00 -6.9815820011673440e+00 -7.1386865962695634e+00 0 1 1
3341 1 3 -4.0613230022305160e+00 -7.2323211054270855e+00 -6.1782990902716701e+00 1 0 0
948 3 2 -3.9075563667408297e+00 -5.5509143699263923e+00 -7.0792338603316622e+00 1 0 1
2688 3 2 -5.9329777761471636e+00 -2.2522985143136274e+00 -4.0916572260325063e-01 1 0 1
489 2 2 -3.6368671000244270e+00 -6.4876583040548459e+00 -2.8873833169340895e+00 1 0 0
1470 1 1 -4.5375928552763325e+00 -6.3338819079317812e+00 -6.5077530585748553e+00 0 1 1
800 1 1 -1.5765627345533931e-01 -5.7536574331692032e+00 -7.0559358414930449e+00 0 0 1
2503 3 2 -4.3125214587979368e+00 -3.9468964739644949e+00 -7.5366463304497584e+00 0 0 1
2967 4 2 -6.5111863290498722e+00 -5.3766787514578605e+00 -6.9322499206842680e+00 1 0 1
2554 4 2 -5.8419292723938421e+00 -6.3447833047991775e+00 -7.1706405853251622e+00 1 0 1
2653 3 2 -3.1558256515524867e+00 -5.8449444073916323e+00 -6.3563081918051720e+00 0 0 1
191 1 1 -6.4685455640692329e+00 -4.5062855404904365e+00 -7.2021774385312831e+00 1 0 1
309 2 2 -5.1579943962673100e+00 -5.0087057826041139e+00 -5.8510758115545167e+00 1 0 1
2654 4 2 -2.4993689976475131e+00 -5.7261852479838860e+00 -7.0427132408896087e+00 0 0 1
2655 5 2 -1.8768332524530749e+00 -5.5750897832956339e+00 -6.3603786950025958e+00 0 0 1
2966 5 2 -7.4230056631062604e+00 -4.4318470651054369e+00 -6.9760617433590744e+00 1 0 1
2965 5 2 -7.7931810209876016e+00 -4.1433504403920551e+00 -7.7997578503382687e+00 1 0 1
950 1 1 -5.8160770702879292e+00 -4.6615733535576149e+00 -6.4496194317458624e+00 1 0 1
2506 5 2 -2.3518512697177294e+00 -4.5981795536309420e+00 -5.9643791143360536e+00 0 0 1
2510 1 1 -3.4535751949745279e+00 -3.3034529559039076e+00 -5.9096373280580403e+00 0 0 1
1570 1 1 -7.2901484233403151e+00 -3.3453773939959204e+00 -7.1830718117022387e+00 1 0 1
1563 3 2 -5.9077323250008904e+00 -2.9007377620561328e+00 -7.2070571146570028e+00 1 0 1
2507 4 2 -1.7424311198231730e+00 -3.8828182663423920e+00 -6.1064574889439669e+00 0 0 1
2509 2 2 -2.8078270966044947e+00 -3.2976586265927659e+00 -5.2281247668409474e+00 0 0 1
1565 5 2 -7.0559257196595402e+00 -1.4417639091995487e+00 -7.2580654984986159e+00 1 0 1
1562 2 2 -5.8912804805090211e+00 -2.4812325373065232e+00 -6.3639897856134500e+00 1 0 1
2163 3 2 -2.5289151550979916e-01 -4.2448273905714751e-01 -5.3883619186139304e+00 0 0 1
1770 1 1 -5.1223286209824714e-01 -6.7233114714662197e+00 -5.3470579958020030e+00 1 1 0
1801 1 1 -6.2806726128951373e+00 -4.2952294633225474e-01 -6.1268118957793520e+00 1 0 1
1772 2 2 -4.7725093014386024e+00 -1.8464480157290426e+00 -7.1851565821635335e+00 0 0 1
2969 2 2 -7.6914579618295535e+00 -6.2230703441184190e+00 -7.3330590688712443e+00 1 0 1
1438 3 2 -3.7048447904196360e+00 -7.1772561388460898e-01 -6.1912999832487836e+00 1 0 1
240 1 1 -3.9801523850404132e+00 -2.2805959699204048e+00 -7.8559845603909162e+00 1 0 1
2126 5 2 -6.7241290497915029e-01 -7.3400333231058867e-01 -7.4831561760555516e+00 0 0 1
2471 1 1 -7.0688986696709479e+00 -1.3983316114392648e+00 -3.7984084693934772e-01 1 0 0
2867 4 2 -5.5305617886571330e+00 -6.3111471303787345e+00 -5.7710818169578681e+00 1 0 1
763 3 2 -5.7310086743821484e+00 -7.5184075927434311e+00 -7.1161159150858326e+00 1 1 1
3226 1 3 -3.0283984320650004e+00 -6.2621851520196588e+00 -5.4143168330446958e+00 1 0 1
795 5 2 -8.7833846532773541e-01 -7.6290297688789348e+00 -6.2206980321143783e+00 0 0 1
1765 5 2 -2.5558087370153757e+00 -7.4953340449493737e+00 -5.5095652896662424e+00 1 1 0
2996 5 2 -1.8839452643467544e-01 -2.4059586474686867e+00 -1.1656350386378973e+00 1 0 0
2066 5 2 -2.5573169816635835e+00 -9.7789952674437652e-01 -1.3720341200868085e+00 1 0 0
2868 3 2 -6.2453500104258293e+00 -6.9708968887474105e+00 -5.9793410515415157e+00 1 0 1
992 2 2 -3.3212744652717285e+00 -6.1075566992761141e+00 -4.3622440696991385e+00 1 0 1
1769 2 2 -1.2680094575754213e+00 -7.4109362993770258e+00 -5.1164822845910223e+00 1 1 0
3313 1 3 -6.6152170134768706e+00 -7.2281928044127461e+00 -7.6823663616366487e+00 1 0 1
3308 1 3 -2.4681078322344261e+00 -4.0617032925648910e+00 -6.9693922077601345e+00 1 1 1
2865 5 2 -6.4777826536748746e+00 -5.8039046958625082e+00 -4.6675379845117995e+00 1 0 1
2651 1 1 -3.2429134971884133e+00 -7.0054269235722870e+00 -6.9058395469237590e+00 0 0 1
797 4 2 -2.5887971419203260e-01 -6.7810328771270596e+00 -6.5192222111323854e+00 0 0 1
2863 3 2 -5.1601319336867313e+00 -4.7813651794569552e+00 -4.8680476052993162e+00 1 0 1
310 1 1 -4.4012877483862436e+00 -5.5609332808045613e+00 -5.6087263375426470e+00 1 0 1
280 1 1 -3.5922961118074328e+00 -7.8597018402604171e+00 -7.5346988627833209e+00 1 0 1
2962 2 2 -6.7898525059752801e+00 -4.7138735245768979e+00 -6.3208111222339820e+00 1 0 1
2942 2 2 -2.6531850217279644e+00 -4.9138879302951599e+00 -4.7458981541087377e+00 1 1 1
641 1 1 -1.7507042045086723e+00 -4.5380591403093780e+00 -4.6881857359827199e+00 1 0 1
232 2 2 -2.2997075182964379e+00 -2.6612555176053065e-01 -7.7112451390229442e+00 1 0 1
2961 1 1 -6.4655215697529949e+00 -5.3327515846385287e+00 -5.7177481230879152e+00 1 0 1
3159 2 2 -6.4312342051214380e+00 -3.5655021843290662e+00 -5.5673797467405661e+00 1 0 1
3158 3 2 -6.2658112390522938e+00 -3.6932466238006483e+00 -6.5295730586551173e+00 1 0 1
3157 4 2 -5.4102820268014673e+00 -3.3935601500168442e+00 -6.2533462869196805e+00 1 0 1
2558 3 2 -4.3403285872794521e+00 -3.6214414444982315e+00 -6.5080578904268425e+00 1 0 1
178 3 2 -1.1563940723820935e-01 -3.6292104083001853e+00 -5.2401029790719074e+00 1 0 0
1307 4 2 -6.6433877975980804e-01 -7.8594323224645288e+00 -1.1082659862607722e-01 1 1 0
1564 4 2 -6.5646174579331111e+00 -2.3108048518647517e+00 -7.2546314992906140e+00 1 0 1
2560 1 1 -3.6262048381878609e+00 -4.9015391070758909e+00 -5.1999847015836211e+00 1 0 1
2559 2 2 -4.0461483684076853e+00 -4.3079977444558404e+00 -5.8338843878784878e+00 1 0 1
2508 3 2 -1.9164585633384881e+00 -3.0085412555927782e+00 -5.6222970859118977e+00 0 0 1
1435 5 2 -3.0229399237893393e+00 -2.0226115091025836e+00 -6.5627388141288314e+00 1 0 1
173 3 2 -1.3100994016060896e+00 -3.6000221820060139e+00 -6.9714637174710585e+00 1 0 0
1803 3 2 -6.6070352643148622e+00 -1.7094498904804469e+00 -6.0340234983845047e+00 1 0 1
1561 1 1 -6.4033300251055021e+00 -2.5940594485966546e+00 -5.6036787861954798e+00 1 0 1
1773 3 2 -4.0631366104003197e+00 -1.5636269310187640e+00 -6.5818097339085551e+00 0 0 1
76 5 2 -2.0986464429676266e-01 -1.3507875252654408e-01 -6.4986941489591332e-01 0 0 1
2063 3 2 -1.0008588938017395e+00 -1.9791809431925582e+00 -1.8298920903677660e+00 1 0 0
2472 2 2 -7.1944366569222158e+00 -2.1733821451395143e+00 -1.0013872856608690e+00 1 0 0
1802 2 2 -6.8177173847037222e+00 -9.3683745938206442e-01 -5.4711236543581352e+00 1 0 1
3244 1 3 -9.8056635441542694e-01 -3.0037459832835012e+00 -4.5065989304984672e-01 1 1 1
231 1 1 -2.8499649093085284e+00 -4.7317383343350639e-01 -7.0073305652481155e+00 1 0 1
854 4 2 -1.3196769228073948e+00 -8.1959851315965138e-01 -1.8448130120719461e-01 1 -1 0
3230 1 3 -1.0003876275685419e+00 -4.5313173254304093e+00 -5.4200295678502224e+00 0 0 1
3209 1 3 -7.1592835151064271e+00 -4.9209186493568167e+00 -2.0041780316058802e+00 1 1 1
1649 2 2 -2.1719087151541330e-01 -9.8201233476695582e-01 -1.7153587108357624e+00 0 0 1
2410 1 1 -4.9134425527553578e+00 -7.0821350171758068e-01 -1.5119068978173572e-01 1 0 0
2869 2 2 -7.1560777356515697e+00 -7.0731241954383330e+00 -5.6191726939652904e+00 1 0 1
993 3 2 -4.0188069943162645e+00 -6.3163924003162348e+00 -4.9446303025526754e+00 1 0 1
1764 4 2 -2.6728320797577436e+00 -7.7900853696647543e+00 -6.4302896878708786e+00 1 1 0
1767 4 2 -1.9423448785123849e+00 -7.3099291344180877e+00 -4.2367591528753810e+00 1 1 0
2180 1 1 -1.3345651706300816e+00 -6.4208004436277690e+00 -4.7557276997883573e+00 1 0 1
2364 4 2 -3.1620394742703234e-01 -6.0876636825579258e+00 -1.1155912001271915e+00 1 0 0
994 4 2 -4.9078591771924582e+00 -6.2391475492455024e+00 -4.6404387866969161e+00 1 0 1
991 1 1 -2.5669547163832602e+00 -5.6484985783327870e+00 -4.0181796728172188e+00 1 0 1
2623 3 2 -2.3724616020636544e+00 -7.7860036836546964e+00 -2.9151339408348340e+00 1 1 1
2842 2 2 -7.6868059664932575e+00 -7.9000518299235178e+00 -5.0845774302094133e+00 1 1 0
2864 4 2 -5.7076490581575587e+00 -5.5593325480654379e+00 -5.1144373622286183e+00 1 0 1
2943 3 2 -2.9448421106432456e+00 -4.3796814215178861e+00 -3.9854741037430652e+00 1 1 1
2941 1 1 -2.2165064114069866e+00 -5.5158450019554692e+00 -5.3106743517243844e+00 1 1 1
642 2 2 -8.9874322763915071e-01 -4.9411416930818728e+00 -4.5093780992686954e+00 1 0 1
2349 2 2 -2.3884877189739936e-01 -2.3745947491906769e-01 -3.4168178686544013e+00 1 0 1
3160 1 1 -5.9819978029420451e+00 -4.3868078480278214e+00 -5.4647199488412328e+00 1 0 1
2862 2 2 -4.6867670498609995e+00 -5.3044592126074797e+00 -4.2559850798541694e+00 1 0 1
401 1 1 -1.5163520302306555e+00 -3.0676105110214675e+00 -4.3197085934747559e+00 1 0 1
179 2 2 -1.0796853520703886e+00 -3.5021429439154335e+00 -5.2349147463922883e+00 1 0 0
201 1 1 -6.8465539497514269e+00 -7.5928393100287650e+00 -3.2663968939327352e+00 1 0 1
1952 2 2 -6.7060240091890400e+00 -4.0857405488332725e+00 -4.6231851368509753e+00 1 0 0
3156 5 2 -4.9576756841324405e+00 -3.8259957987178614e+00 -5.5264097109705119e+00 1 0 1
3155 5 2 -4.4899055656474252e+00 -3.0310349268953156e+00 -5.5782346764767254e+00 1 0 1
180 1 1 -1.0152950789306920e+00 -3.0486702657261877e+00 -6.0751237593264644e+00 1 0 0
174 4 2 -5.0794183403294924e-01 -3.8728032180769310e+00 -6.5273990776937598e+00 1 0 0
1439 2 2 -4.2363516673572326e+00 -3.3679153113325011e-01 -5.4956741175368746e+00 1 0 1
3177 4 2 -7.7772503838998013e+00 -8.2699064182189441e-01 -2.5797093592313405e+00 1 -1 1
1951 1 1 -7.5837818763808942e+00 -3.7146486132446519e+00 -4.6738127988781661e+00 1 0 0
1775 5 2 -3.3596984843284745e+00 -2.4775016793857461e+00 -5.2897786707123480e+00 0 0 1
1436 5 2 -2.6566830740930611e+00 -1.1451869983985177e+00 -6.2865836238230957e+00 1 0 1
1779 2 2 -1.7232201011451882e+00 -1.8012791872450709e+00 -6.1745108851050325e+00 0 0 1
92 2 2 -7.7586689110488010e+00 -7.5124981928295043e+00 -7.6956410411608092e+00 1 0 1
1804 4 2 -5.8136435902483132e+00 -1.2002801903517692e+00 -5.6936582227008028e+00 1 0 1
1809 2 2 -5.4266104911139204e+00 -9.7715504972294509e-01 -7.4298104781589993e+00 1 0 1
1774 4 2 -3.9360853735926624e+00 -1.7150466098925041e+00 -5.6363347358421505e+00 0 0 1
1437 4 2 -3.1222176381161528e+00 -9.3432113423166985e-01 -5.4495008348827527e+00 1 0 1
855 5 2 -1.4149682030940127e+00 -3.9634828566182184e-01 -1.0725081729218162e+00 1 -1 0
546 5 2 -7.3344902932094573e+00 -4.9637635407368466e+00 -4.8558045925908484e+00 1 1 1
377 4 2 -2.1248525393652917e+00 -5.6343910054386974e+00 -1.1829765527183473e+00 1 0 1
543 3 2 -7.2750890084004682e+00 -6.0542784467439690e+00 -5.4337500071487765e+00 1 1 1
1891 1 1 -6.9113019495541650e+00 -7.6675365685247350e+00 -1.1643517466382658e+00 1 1 0
107 4 2 -4.7028698064384411e+00 -2.4257598239722031e-01 -4.4630413371572137e+00 1 0 0
856 5 2 -1.7202545657816717e+00 -4.1980122933164526e-01 -1.9833044943447484e+00 1 -1 0
2609 2 2 -4.9925635960748469e+00 -4.2967141481405209e+00 -6.8325425476573831e-01 1 0 0
58 3 2 -2.2695889989532425e+00 -4.5617191675880631e-01 -5.2635092792484963e+00 1 0 1
166 5 2 -5.5649344971570507e+00 -2.6629721473067716e+00 -1.4181717067092725e+00 1 0 1
2363 3 2 -5.3841924160229893e-01 -6.9866289110713682e+00 -1.1384541993557293e+00 1 0 0
1896 5 2 -6.8842626311538435e+00 -4.8690942651224010e+00 -3.2243860686657183e-01 1 1 0
2311 1 1 -9.5288698934480820e-01 -5.6074851149136631e+00 -5.4310076161985634e+00 1 1 0
2723 3 2 -6.3361216528120865e+00 -1.2034113640978568e+00 -3.9999757504888698e+00 1 0 0
2291 1 1 -3.1999852979536731e+00 -4.0678375994079055e+00 -3.1134567199385432e+00 1 0 1
2177 4 2 -7.8337446194187577e-01 -6.0688855784476115e+00 -3.3571264720998113e+00 1 0 1
2179 2 2 -4.8855893655017918e-01 -6.2190997062841786e+00 -4.3188046806823124e+00 1 0 1
995 5 2 -4.7491549097265775e+00 -7.1568527249840290e+00 -4.2782380900567132e+00 1 0 1
2945 5 2 -3.9732777580913758e+00 -4.5175283056966071e+00 -3.9644588988293306e+00 1 1 1
2944 4 2 -3.4901732686923541e+00 -3.9545884108911697e+00 -4.6727943653940915e+00 1 1 1
75 5 2 -1.1994294468865575e-01 -1.0098957503760309e+00 -4.4159273766935742e-01 0 0 1
2861 1 1 -4.3875992047545855e+00 -5.8874257632686602e+00 -3.4392648362987526e+00 1 0 1
650 1 1 -2.7265939569647926e+00 -3.3552659883863853e+00 -4.1354235342548273e+00 1 0 1
643 3 2 -1.6169584003302939e+00 -5.3532968488943355e+00 -4.0928160522489341e+00 1 0 1
2658 3 2 -1.9939362478936122e+00 -4.9130716713614468e+00 -7.6652937068649516e+00 0 0 1
1954 4 2 -6.1614783208099437e+00 -5.2599547396597925e+00 -3.5600027511266665e+00 1 0 0
402 2 2 -1.8931105517321685e+00 -3.8458927659754281e+00 -3.8830273106503386e+00 1 0 1
997 4 2 -5.3952720535105936e+00 -7.6732649121875616e+00 -5.1273513418482777e+00 1 0 1
1953 3 2 -6.0904433624094549e+00 -4.8561353559834455e+00 -4.3790516606741887e+00 1 0 0
3154 4 2 -4.7502733946029325e+00 -2.3548239122997714e+00 -6.1429844671987928e+00 1 0 1
1776 5 2 -3.2740342112651217e+00 -1.8611397800851099e+00 -4.6178297074212846e+00 0 0 1
40 1 1 -1.7385784655017802e+00 -7.3562612290223814e+00 -6.6922848115307891e+00 1 0 1
3266 1 3 -3.2691391270186290e+00 -4.9810952082637545e+00 -7.7560282609845226e+00 0 1 1
1808 3 2 -5.0499623251491412e+00 -9.6767594117928390e-01 -6.5505878266779618e+00 1 0 1
1520 1 1 -4.1613594236075020e+00 -1.4005687036161891e+00 -4.7765588424788437e+00 1 0 1
1777 4 2 -2.4603104785559520e+00 -1.4156906004424179e+00 -4.8065880795247891e+00 0 0 1
1778 3 2 -2.4528187817318585e+00 -1.9514822399996927e+00 -5.6079507486453748e+00 0 0 1
794 4 2 -3.5974308812184186e-01 -7.9090249039095930e+00 -5.4605724463898371e+00 0 0 1
3297 1 3 -5.3310886720137329e+00 -1.2392924401238978e+00 -2.9082462489547627e+00 1 0 1
2486 5 2 -2.5956199877823747e+00 -2.2402997479448596e+00 -4.0670012401901880e+00 1 0 1
1780 1 1 -2.1543746723877186e+00 -2.5860693207525607e+00 -6.6459137589693347e+00 0 0 1
2484 4 2 -2.7287624385730025e+00 -6.2048332796539085e-01 -4.1589533761070063e+00 1 0 1
2298 3 2 -4.3251416621486847e+00 -5.6242276239950684e+00 -1.4677780156162107e-01 1 0 1
1807 4 2 -4.8689506953350241e+00 -1.0417249642554955e+00 -5.6023836734304160e+00 1 0 1
378 3 2 -1.4628848525925100e+00 -5.8456447941459020e+00 -5.4503050979167178e-01 1 0 1
490 1 1 -3.3732089550019850e+00 -6.8812275635665081e+00 -1.9879912900172025e+00 1 0 0
2721 1 1 -7.2250820191798555e+00 -1.9076552543527368e+00 -5.1302102889732701e+00 1 0 0
2101 1 1 -4.0007191595109743e+00 -6.6366680451971778e+00 -2.6281767616985169e-01 1 0 0
2065 5 2 -1.6984892338002717e+00 -1.3784627867549755e+00 -1.1450285635917288e+00 1 0 0
1648 3 2 -6.4427337418851693e-01 -7.9674163239578710e-01 -2.5441631204216462e+00 0 0 1
3276 1 3 -1.4409445169299995e+00 -2.6401145991719348e+00 -1.3389116228192528e+00 1 0 1
549 2 2 -7.3987729129454296e+00 -6.5887693023429392e+00 -4.1815001635320916e+00 1 1 1
2175 5 2 -2.5333979554341530e+00 -6.5725693020068112e+00 -3.6586659169225886e+00 1 0 1
2682 2 2 -7.5444204804275623e+00 -2.7302525310759922e+00 -1.8824168544716502e+00 1 0 1
947 4 2 -3.8716618697074749e+00 -6.4372001610718135e+00 -7.5615131103946505e+00 1 0 1
550 1 1 -7.6114130049692985e+00 -5.8223861208568346e+00 -3.5698925768017351e+00 1 1 1
996 5 2 -4.4898668028700479e+00 -7.2483320131541165e+00 -5.1985617343884583e+00 1 0 1
2292 2 2 -3.0304802361492129e+00 -5.0068771929283606e+00 -3.1405587997499427e+00 1 0 1
1893 3 2 -7.0515221602308573e+00 -5.9603616378577620e+00 -1.6331705183491545e+00 1 1 0
2293 3 2 -2.9553032983498100e+00 -5.0948680476128168e+00 -2.2152381145847793e+00 1 0 1
2176 5 2 -1.5897835382411540e+00 -6.4847683006626422e+00 -3.7680764990863667e+00 1 0 1
2178 3 2 -4.7529997320990552e-01 -6.9657971403537911e+00 -3.6958068876762611e+00 1 0 1
1955 5 2 -5.8796032165700955e+00 -6.1252727496510326e+00 -3.7090422545379029e+00 1 0 0
2946 5 2 -4.8558843063984156e+00 -4.2869336479920834e+00 -3.9879582889762331e+00 1 1 1
403 3 2 -9.3557796917750768e-01 -3.9144343771253887e+00 -3.7826616314548329e+00 1 0 1
644 4 2 -1.6976968786723501e+00 -5.0229311755120536e+00 -3.1974928555672109e+00 1 0 1
2125 5 2 -1.4244248902143259e+00 -1.2716880246227735e+00 -7.1742342287048597e+00 0 0 1
3339 1 3 -6.7435141470175113e+00 -4.3405838844548041e+00 -2.9365349855178517e+00 1 0 0
649 2 2 -2.5278283610778671e+00 -3.1919916913171846e+00 -3.2621532179889963e+00 1 0 1
404 4 2 -5.1956761756713199e-01 -3.2607865328231349e+00 -4.3041497575232368e+00 1 0 1
371 1 1 -3.4502775908182759e+00 -4.9453122273027157e+00 -8.4029523915730253e-01 1 0 1
436 5 2 -6.8852702112080584e+00 -3.5159022923323784e+00 -3.6338752145487647e+00 1 0 0
1515 5 2 -3.5245050746879723e+00 -2.3069983535038530e+00 -3.2718910621535078e+00 1 0 1
1516 5 2 -3.9601644851728137e+00 -1.5882129181228231e+00 -3.7882188299970596e+00 1 0 1
405 5 2 -7.1887514389420359e-01 -2.8197686296209215e+00 -3.4929310836855705e+00 1 0 1
408 3 2 -2.8485479699273875e-01 -2.2966788448345103e+00 -4.4368918047132535e+00 1 0 1
437 4 2 -6.5747811884274991e+00 -2.5657219865644136e+00 -3.7067763673904985e+00 1 0 0
3153 3 2 -5.3058981878683076e+00 -2.0151078913522635e+00 -5.4866421408259178e+00 1 0 1
1517 4 2 -4.6422988749022247e+00 -9.9930573573782422e-01 -3.8533940685757790e+00 1 0 1
406 5 2 -6.3297861796860366e-01 -2.0895493316069520e+00 -2.9044402375490330e+00 1 0 1
407 4 2 -6.5796540972438100e-01 -1.7323462103061138e+00 -3.7524942299908526e+00 1 0 1
1519 2 2 -4.6078289853868970e+00 -2.3053379256362625e+00 -4.7812619736020086e+00 1 0 1
2487 4 2 -1.8049629929631623e+00 -2.2769080234315915e+00 -3.5608156480592537e+00 1 0 1
2488 3 2 -1.6549223171837690e+00 -2.0069130422064867e+00 -4.4535888179141470e+00 1 0 1
2712 2 2 -4.9033913413517229e+00 -5.2261595682673134e-01 -2.3935459689259782e+00 0 0 1
60 1 1 -1.4552557922539568e+00 -3.0737133554793489e-01 -6.4357240772647444e+00 1 0 1
2485 5 2 -2.4772960839176439e+00 -1.4102704991574697e+00 -3.6369699566799936e+00 1 0 1
3236 1 3 -6.8159932872516293e+00 -2.2908221055521918e+00 -2.6565483061171600e+00 1 1 0
175 5 2 -4.4665459595852836e-01 -4.8362907566000963e+00 -6.5169774660400694e+00 1 0 0
2060 1 1 -7.4358470542759365e+00 -7.8929345279238206e+00 -2.3589969019891468e+00 1 0 0
2686 5 2 -7.1568118645776790e+00 -3.6874961192006719e+00 -1.2372720088813265e-01 1 0 1
1800 1 1 -7.6112348801983600e+00 -2.5726308342008295e+00 -7.5300778170181699e+00 2 1 1
59 2 2 -1.4040930568663808e+00 -6.6831568761478399e-01 -5.5739502353758832e+00 1 0 1
203 3 2 -5.8659115658266412e+00 -7.1009205724940756e+00 -2.9124299431290273e+00 1 0 1
1569 2 2 -7.2883381258283402e+00 -3.1640538960272893e+00 -6.2529689885835094e+00 1 0 1
2174 4 2 -3.0982054733289983e+00 -7.3313534612205702e+00 -3.7869063487418946e+00 1 0 1
2716 5 2 -5.6084221786499908e+00 -1.9365091154097258e-01 -3.6711582479543607e+00 0 0 1
206 5 2 -7.5519325706966152e+00 -6.0618584617789502e+00 -2.6259413402124276e+00 1 0 1
204 4 2 -6.4009005434051014e+00 -6.3208812897348192e+00 -2.5478093438614708e+00 1 0 1
2171 1 1 -4.9833204242019926e+00 -6.7618936871605779e+00 -3.3458447339811563e+00 1 0 1
2172 2 2 -4.7918471039534003e+00 -7.7196939659616017e+00 -3.0348494819544212e+00 1 0 1
1956 5 2 -5.5784181907147614e+00 -5.7969307350533272e+00 -2.8874675167161010e+00 1 0 0
2949 2 2 -4.4325042176807035e+00 -4.3311999842058988e+00 -3.0311266360655282e+00 1 1 1
2950 1 1 -4.2291896858345988e+00 -3.6157191725621844e+00 -2.4505020199074155e+00 1 1 1
2294 4 2 -3.8332960284742832e+00 -5.1597333232313147e+00 -2.6718624648622482e+00 1 0 1
2366 5 2 -1.1151014233838641e+00 -5.6589622325787543e+00 -2.5492541147989414e+00 1 0 0
1957 4 2 -4.9559460024046373e+00 -5.1395944545318359e+00 -2.6568505584456568e+00 1 0 0
2947 4 2 -5.7083152559099410e+00 -4.1941404061703951e+00 -3.5972690720180069e+00 1 1 1
648 3 2 -2.7400323753694673e+00 -2.4938213545799477e+00 -2.6274215031030383e+00 1 0 1
646 5 2 -2.6491251562700224e+00 -3.9712461975636968e+00 -2.1757904410647488e+00 1 0 1
645 5 2 -2.2566893802961516e+00 -4.3265064540048908e+00 -2.9682181233274840e+00 1 0 1
1707 4 2 -1.6168087710111081e-01 -7.2730162127081943e+00 -2.7560541668508511e+00 0 0 1
435 5 2 -7.7677053189073870e+00 -3.0475823459970708e+00 -3.5875674498369734e+00 1 0 0
1513 3 2 -4.0292240809587314e+00 -3.5389216910318755e+00 -3.6439106966207246e+00 1 0 1
647 4 2 -3.2256947843307202e+00 -3.1582563937797952e+00 -2.2953558628318560e+00 1 0 1
3347 1 3 -2.3547686200296889e+00 -2.9548033837087351e+00 -1.8326288143330220e+00 1 0 1
1568 3 2 -7.9110831523940242e+00 -2.5275452189704062e+00 -5.8400568612570378e+00 1 0 1
1512 2 2 -4.9397806662179606e+00 -3.2147786763888169e+00 -3.7077879029860332e+00 1 0 1
1514 4 2 -3.7313304492934560e+00 -2.7843438770874696e+00 -4.0929534935958394e+00 1 0 1
1806 5 2 -5.3121452732902137e+00 -1.2882985146737909e+00 -4.7073971628097526e+00 1 0 1
202 2 2 -6.6026756576880716e+00 -6.7106643823207062e+00 -3.4838487944166423e+00 1 0 1
3152 2 2 -5.4336946177452567e+00 -2.9422113393820188e+00 -5.2445827409685144e+00 1 0 1
3176 5 2 -7.8906284752228606e+00 -1.7248392101980052e+00 -2.2125195263101611e+00 1 -1 1
2729 2 2 -7.6767905188203427e+00 -1.1314769366538411e+00 -4.2579419331288868e+00 1 0 0
2730 1 1 -7.2746045236730046e+00 -1.8230339476137041e+00 -3.7275210166369410e+00 1 0 0
1518 3 2 -4.9530365060938468e+00 -1.9091768670810108e+00 -3.9613651103817475e+00 1 0 1
376 5 2 -1.9612616218002834e+00 -4.6578662990005038e+00 -1.1351362229487292e+00 1 0 1
2504 4 2 -3.9850220108946894e+00 -4.5448489220667438e+00 -6.9142626828994889e+00 0 0 1
1083 3 2 -3.1792575446199680e+00 -1.6351474884334245e+00 -5.0502882925753578e-01 1 0 0
3247 1 3 -7.5571731954690859e+00 -3.1422426418320576e-01 -1.5930899751165897e+00 1 0 0
2481 1 1 -3.2130662832136907e+00 -8.0535555530110725e-01 -3.2703730433176972e+00 1 0 1
541 1 1 -7.3760155168132764e+00 -6.9424396250655347e+00 -6.7144197524362061e+00 1 1 1
2059 2 2 -7.1351718961214941e+00 -7.0687460938515327e+00 -2.1383241608483781e+00 1 0 0
764 4 2 -5.6385793179803647e+00 -7.8263448588846316e+00 -6.2170447541969676e+00 1 1 1
488 3 2 -4.3143396638131648e+00 -6.9881980826858685e+00 -2.3799616450860595e+00 1 0 0
2123 3 2 -3.2342092971340204e+00 -1.4057101608182876e+00 -7.5966400438244293e+00 0 0 1
2687 4 2 -6.7052187314011720e+00 -2.8767446666985954e+00 -2.8910525350950778e-01 1 0 1
3327 1 3 -5.2687084664860624e+00 -4.3790683603579107e-02 -6.1453007890246001e+00 0 1 1
1063 3 2 -5.7299539499339431e+00 -7.2990517690819345e+00 -1.7664949609922465e+00 1 0 0
487 4 2 -4.5655545233434536e+00 -6.1050829582298114e+00 -2.0811591344414562e+00 1 0 0
1705 5 2 -1.0680524326320604e+00 -6.7296486286150925e+00 -2.1922684655603470e+00 0 0 1
2685 5 2 -7.4538441478007051e+00 -4.1001443352577773e+00 -9.4605147391640376e-01 1 0 1
1704 4 2 -1.7365912189896071e+00 -6.5482656953777587e+00 -1.5484561172828850e+00 0 0 1
2365 5 2 -9.5760684352506054e-01 -5.6636212159711770e+00 -1.6410020989268403e+00 1 0 0
205 5 2 -6.8556844161278958e+00 -5.4731557415339145e+00 -2.8559750974714970e+00 1 0 1
1061 1 1 -6.2542146959063603e+00 -5.6120116961180644e+00 -9.8649620402441496e-01 1 0 0
2297 4 2 -5.1281453433267705e+00 -5.2780978129987597e+00 -6.2087452554968681e-01 1 0 1
1702 2 2 -2.3874994919498582e+00 -5.8082037938428499e+00 -2.9746742110200195e+00 0 0 1
1703 3 2 -2.2985252126868430e+00 -6.5561971342757710e+00 -2.3727564510018033e+00 0 0 1
2103 3 2 -2.2655064827235245e+00 -6.6467053787555779e+00 -3.9155802079037338e-01 1 0 0
2948 3 2 -5.2058630532926893e+00 -3.8032543063734052e+00 -2.8326321302322182e+00 1 1 1
2296 5 2 -4.6278197654082556e+00 -4.9217665356112370e+00 -1.3778662928313965e+00 1 0 1
2482 2 2 -2.4276913885662834e+00 -2.8609411732033152e-01 -3.2270815323752404e+00 1 0 1
2173 3 2 -3.9999623568153360e+00 -7.2497185378436217e+00 -3.3565451338051293e+00 1 0 1
1089 2 2 -4.4598464180273485e+00 -1.5639746252159088e+00 -8.3258889703130989e-01 1 0 0
3231 1 3 -3.7601492406731341e+00 -3.3924100417340037e+00 -4.9394530038051565e-01 1 1 1
2064 4 2 -7.9598495161257898e-01 -1.5429552046398649e+00 -9.7266305057444469e-01 1 0 0
163 3 2 -6.2525387782911030e+00 -3.7849113363323115e+00 -1.8093340433118834e+00 1 0 1
1511 1 1 -4.6716433065169642e+00 -3.3736785942726897e+00 -4.5953234147384139e+00 1 0 1
1088 3 2 -4.4452545427471124e+00 -2.4985945144047412e+00 -1.3454389583193214e+00 1 0 0
1087 4 2 -3.9485940056819140e+00 -3.2904036254479245e+00 -1.4998880522877489e+00 1 0 0
1492 2 2 -1.4887637622261216e+00 -3.8699408190100590e+00 -2.5128715014605967e+00 1 0 0
162 2 2 -6.7805507511666772e+00 -3.2428904602247663e+00 -2.4143220052588990e+00 1 0 1
3151 1 1 -6.1123944699762021e+00 -3.1209276298969839e+00 -4.5546280671018211e+00 1 0 1
169 2 2 -4.5401311415277883e+00 -1.6404527589214617e+00 -1.8588099452521443e+00 1 0 1
1086 5 2 -3.5307606348887122e+00 -2.4918880842129902e+00 -1.0410658685609364e+00 1 0 0
38 3 2 -1.1685650272561039e+00 -6.5000695906144736e+00 -7.8220064454975953e+00 1 0 1
170 1 1 -4.0388388740340169e+00 -1.1832812885966484e+00 -2.5520032307338663e+00 1 0 1
1085 5 2 -3.3223389678497788e+00 -2.0271769984951735e+00 -1.9030426421914337e+00 1 0 0
2061 1 1 -2.5160895060176509e+00 -1.0406367370548928e+00 -2.5238937755965436e+00 1 0 0