LAMMPS data file via write_data, version 23 Mar 2016-ICMS, timestep = 100

3360 atoms
3 atom types
3048 bonds
2 bond types
240 angles
2 angle types
144 dihedrals
1 dihedral types
0 impropers
1 improper types

-7.9238210000000002e+00 7.9238210000000002e+00 xlo xhi
-7.9238210000000002e+00 7.9238210000000002e+00 ylo yhi
-7.9238210000000002e+00 7.9238210000000002e+00 zlo zhi

Masses

1 1
2 1
3 1

Pair Coeffs # lj/cut

1 1 1
2 1 1
3 1 1

Bond Coeffs # fene

1 30 1.5 1 1
2 30 1.5 1 1

Angle Coeffs # harmonic

1 1 180
2 1 180

Dihedral Coeffs # harmonic

1 1 1 2

Atoms # molecular

92 2 2 -7.6698431124859798e+00 -7.5762313045271767e+00 -7.5938005548971521e+00 1 0 1
3313 1 3 -6.7157067262532113e+00 -7.1529960034199869e+00 -7.6769429848653994e+00 1 0 1
3278 1 3 -3.9175773652509314e+00 -1.8803059984172705e+00 -6.6262886492169590e-02 2 0 0
2554 4 2 -5.7522331063017305e+00 -6.4046481386014724e+00 -7.2163455115029187e+00 1 0 1
1469 2 2 -4.6833131815284057e+00 -6.8548246966197679e+00 -7.1127931283404751e+00 0 1 1
947 4 2 -3.8325281380064125e+00 -6.3685162061047595e+00 -7.6061309610261532e+00 1 0 1
39 2 2 -1.8097214805429496e+00 -6.4805850842569885e+00 -7.1532960436534729e+00 1 0 1
3003 3 2 -1.9239617869739669e+00 -2.8025627238289728e+00 -7.8866558022616395e+00 1 0 1
715 5 2 -2.9900729215841204e-01 -7.1552079519090350e+00 -7.6465631315976594e+00 1 1 1
2969 2 2 -7.8330285072405514e+00 -6.2668672667053098e+00 -7.4777187205120637e+00 1 0 1
2968 3 2 -6.8589087630679337e+00 -6.1030390526074063e+00 -7.5373556427982962e+00 1 0 1
2555 5 2 -4.9339491670692928e+00 -5.9368028387674459e+00 -7.3585600625501568e+00 1 0 1
2963 3 2 -7.4227517127253009e+00 -5.1761708124394836e+00 -7.5294425717711935e+00 1 0 1
308 3 2 -5.1878286962894027e+00 -4.8589570667738906e+00 -7.2279228822361699e+00 1 0 1
3266 1 3 -3.2403788419217978e+00 -5.0258329141824047e+00 -7.6125560774135508e+00 0 1 1
2658 3 2 -1.8693588268407744e+00 -4.7616489990236888e+00 -7.5115714839098811e+00 0 0 1
2657 4 2 -1.4269510671883174e+00 -5.5637053564965973e+00 -7.1393323492529266e+00 0 0 1
2965 5 2 -7.8705087804406162e+00 -4.1905658077810140e+00 -7.7392014139156959e+00 1 0 1
191 1 1 -6.7834284996503964e+00 -4.4398854015410185e+00 -7.2694635387495321e+00 1 0 1
172 2 2 -8.4550807780022796e-01 -4.3708736751573181e+00 -7.7232715115081101e+00 1 0 0
1570 1 1 -7.1353389972190611e+00 -3.5159051119289191e+00 -6.9980855914592350e+00 1 0 1
2502 2 2 -5.2499076534376989e+00 -3.8589054657926756e+00 -7.5497213090894810e+00 0 0 1
2503 3 2 -4.3177776852296379e+00 -3.9249792734302478e+00 -7.4687954632806601e+00 0 0 1
1433 3 2 -3.3405868001971468e+00 -3.1354673436710594e+00 -7.4643415788887966e+00 1 0 1
1800 1 1 -7.7841171802645128e+00 -2.3714089487478121e+00 -7.4430609150722962e+00 2 1 1
1563 3 2 -5.9591601686739892e+00 -2.9096486619051438e+00 -7.2065042315972043e+00 1 0 1
2501 1 1 -4.8922607179879449e+00 -2.9543186431699358e+00 -7.4616268300923840e+00 0 0 1
2167 4 2 -9.1735544995106444e-01 -2.7316327074536617e+00 -7.3981545773291888e+00 0 0 1
1564 4 2 -6.6361919073079170e+00 -2.2146905427445827e+00 -7.2812250764035342e+00 1 0 1
1772 2 2 -5.0624982099928664e+00 -1.9197614907075009e+00 -7.1166048177429664e+00 0 0 1
1644 4 2 -3.6187634251412783e-02 -3.1371417747155683e-02 -4.4866067871377000e+00 0 0 1
1565 5 2 -7.2592753215182375e+00 -1.4119496661622837e+00 -7.3220700734012762e+00 1 0 1
1809 2 2 -5.5136972266965936e+00 -8.8877359230767150e-01 -7.3315184014379415e+00 1 0 1
1771 1 1 -4.4447857032221254e+00 -1.4517279686172408e+00 -7.6409321333313756e+00 0 0 1
2123 3 2 -3.1913277703490288e+00 -1.4360913121612808e+00 -7.5119643417937487e+00 0 0 1
2124 4 2 -2.2656205551225401e+00 -1.4706823968485163e+00 -7.2377026410162957e+00 0 0 1
2125 5 2 -1.2760030369082866e+00 -1.4762549096900524e+00 -7.3300596380323721e+00 0 0 1
225 5 2 -7.5075487444690383e+00 -4.1836160707004433e-01 -7.5115919762502656e+00 1 0 1
1996 5 2 -6.3335057653329256e+00 -4.6048863179545735e-02 -7.1172781969097132e+00 1 0 1
232 2 2 -2.1922914893332170e+00 -4.4903342444066224e-01 -7.6802119247645244e+00 1 0 1
2126 5 2 -6.7628895497043928e-01 -7.6243980049617244e-01 -7.2959996718167854e+00 0 0 1
763 3 2 -5.7450237965178976e+00 -7.5137343180123422e+00 -6.9711077512480442e+00 1 1 1
1764 4 2 -2.7442836617341557e+00 -7.7685358702148601e+00 -6.4687905005275237e+00 1 1 0
40 1 1 -1.7484584967638859e+00 -7.4412613765145750e+00 -6.9673262286580853e+00 1 0 1
796 5 2 -2.7465862060201168e-01 -7.7397276984568064e+00 -6.5513659875050960e+00 0 0 1
541 1 1 -6.9135818185634443e+00 -7.0310840335089795e+00 -6.8209344158901057e+00 1 1 1
2651 1 1 -3.5477678516427331e+00 -7.0242475621183269e+00 -6.7460331225260264e+00 0 0 1
2652 2 2 -2.6464712274709465e+00 -6.7063039090227043e+00 -6.5464971402958607e+00 0 0 1
797 4 2 -2.6394676833373037e-01 -6.8238430779068731e+00 -6.6989564515740714e+00 0 0 1
542 2 2 -6.9253814355218966e+00 -6.3634534369110849e+00 -6.1407684699490748e+00 1 1 1
2556 5 2 -5.4079135945681447e+00 -5.4920292475829342e+00 -6.6009573959038592e+00 1 0 1
1470 1 1 -4.5011707487967483e+00 -6.3955506105803872e+00 -6.2522738425995810e+00 0 1 1
948 3 2 -3.9181464637555163e+00 -5.7668924221735587e+00 -6.8687834615804180e+00 1 0 1
2653 3 2 -3.0530768100400096e+00 -5.8656019514942148e+00 -6.3479555217771058e+00 0 0 1
2654 4 2 -2.4880860687919304e+00 -5.5717613504775692e+00 -7.1455711473364945e+00 0 0 1
2655 5 2 -2.1335467145822564e+00 -5.4029932438611619e+00 -6.3010734399721482e+00 0 0 1
800 1 1 -2.6393650571910860e-02 -5.6648400642555528e+00 -7.1424513860622376e+00 0 0 1
192 2 2 -7.4893513673330485e+00 -5.4103524909437448e+00 -6.6612679788257747e+00 1 0 1
2967 4 2 -6.6369461575371114e+00 -5.3415099352910778e+00 -7.0061661029133804e+00 1 0 1
949 2 2 -4.5488995001235324e+00 -5.1021747509189481e+00 -6.5675111259843471e+00 1 0 1
2656 5 2 -1.5624802224766192e+00 -4.7460120755819162e+00 -6.5704635386643080e+00 0 0 1
175 5 2 -3.7065422327102165e-01 -4.9333685925979545e+00 -6.3671803554416915e+00 1 0 0
2966 5 2 -7.6699760527704015e+00 -4.5291808667295523e+00 -6.8819803431115911e+00 1 0 1
950 1 1 -5.8615373513098863e+00 -4.6842372066051601e+00 -6.5388209955965291e+00 1 0 1
2557 4 2 -5.0127206911802658e+00 -4.2529434514111069e+00 -6.5437760644144252e+00 1 0 1
2504 4 2 -3.6632960789824871e+00 -4.3548082624407076e+00 -6.8148422555727484e+00 0 0 1
2505 5 2 -3.1288900104603270e+00 -4.8208557415471232e+00 -6.1981454530862408e+00 0 0 1
3308 1 3 -2.6934338054916211e+00 -3.7069199347180946e+00 -6.6212693630971780e+00 1 1 1
3158 3 2 -6.2655895471863738e+00 -3.6016888044625603e+00 -6.4746265900578326e+00 1 0 1
2558 3 2 -4.3423281387040458e+00 -3.6446470748789808e+00 -6.3314306019763036e+00 1 0 1
173 3 2 -1.4653042901690985e+00 -3.8513580931571858e+00 -7.1345155904274478e+00 1 0 0
174 4 2 -7.3262476719109648e-01 -4.0885947320612601e+00 -6.5453939562703445e+00 1 0 0
1562 2 2 -6.0852346884612416e+00 -2.4567038244715569e+00 -6.3921583864147928e+00 1 0 1
1434 4 2 -3.6362830213544957e+00 -2.6317959429757121e+00 -6.6487051428438351e+00 1 0 1
1780 1 1 -2.0360915651799427e+00 -2.5935640004704790e+00 -6.7085248917790796e+00 0 0 1
1435 5 2 -3.0102980704842297e+00 -1.9742434486769067e+00 -6.2263611036176094e+00 1 0 1
2166 5 2 -6.1410323953548862e-01 -2.0958615032798522e+00 -6.7759864203126394e+00 0 0 1
1566 5 2 -7.1123236198265225e+00 -9.6738299557451279e-01 -6.5757088810681257e+00 1 0 1
1810 1 1 -5.9737834197277495e+00 -1.4868200640311091e+00 -6.8045127932106801e+00 1 0 1
1808 3 2 -4.9666348075282896e+00 -1.0032318642341529e+00 -6.4967558986979626e+00 1 0 1
1773 3 2 -4.2687291582716531e+00 -1.7376654585808244e+00 -6.6252127496968960e+00 0 0 1
231 1 1 -2.8728857619810397e+00 -6.3627066074012872e-01 -7.0737296304633288e+00 1 0 1
60 1 1 -1.5911882635510830e+00 -6.1693869037865912e-01 -6.7428930188446543e+00 1 0 1
2127 4 2 -4.7907549320860987e-01 -1.4036903060019817e-01 -6.6434391920644913e+00 0 0 1
390 1 1 -6.9086048206471133e+00 -6.8973359924012918e+00 -2.8264351638788151e-02 1 0 1
3341 1 3 -4.2495487808450099e+00 -7.3636896245282362e+00 -6.3549610251572020e+00 1 0 0
795 5 2 -1.0345926468164062e+00 -7.6638459060074107e+00 -6.0424906615760889e+00 0 0 1
2869 2 2 -7.0478055079694810e+00 -7.3327409524140581e+00 -5.6601966475748178e+00 1 0 1
2868 3 2 -6.1852786308340821e+00 -7.1210701999525243e+00 -6.0913007255981748e+00 1 0 1
3203 1 3 -1.4294806131319162e+00 -6.4853276596711176e+00 -5.8218981642559982e+00 1 0 0
2867 4 2 -5.4555724340527192e+00 -6.7579266478918978e+00 -5.6492253756808308e+00 1 0 1
310 1 1 -4.7544444979474552e+00 -5.6256122571960319e+00 -5.5435243057762733e+00 1 0 1
2312 2 2 -1.5010848565052581e-01 -5.6922549377642948e+00 -5.5336324071930330e+00 1 1 0
2122 2 2 -2.8319659216826945e+00 -2.3384725699878564e+00 -7.6591388234266180e+00 0 0 1
2961 1 1 -6.3838382877233419e+00 -5.4476677145625452e+00 -5.9124212819851287e+00 1 0 1
309 2 2 -5.2058684933508124e+00 -4.8856945694736478e+00 -5.8930820081435655e+00 1 0 1
3307 1 3 -7.6778460854472304e+00 -3.8565618085335847e+00 -5.8833530841920814e+00 0 1 2
2962 2 2 -6.8811504004338895e+00 -4.7441082615389432e+00 -6.3621090768898352e+00 1 0 1
2559 2 2 -4.0322542395804568e+00 -4.4398899515100254e+00 -5.8276915046185946e+00 1 0 1
2506 5 2 -2.3863208548233015e+00 -4.3266706919202997e+00 -5.8449434935929681e+00 0 0 1
3159 2 2 -6.6430280945787707e+00 -3.7079071166980189e+00 -5.6315431767304576e+00 1 0 1
3157 4 2 -5.4053380733015848e+00 -3.4395124670471131e+00 -6.1110975594772938e+00 1 0 1
2510 1 1 -3.3807116398049692e+00 -3.5889685675594172e+00 -5.8376567380458129e+00 0 0 1
2507 4 2 -1.7202251084018871e+00 -3.7726398171437134e+00 -6.0989826117425201e+00 0 0 1
1569 2 2 -7.2175463843712482e+00 -2.8569758934758833e+00 -6.2794732591072009e+00 1 0 1
2067 4 2 -2.5903421663443504e+00 -1.8990551292710153e-01 -6.5866857706493764e-01 1 0 0
1561 1 1 -6.5113700337233977e+00 -2.5728582668955191e+00 -5.5197077948894595e+00 1 0 1
3155 5 2 -4.4087836254648485e+00 -3.0296570249541812e+00 -5.5637804753934441e+00 1 0 1
2508 3 2 -1.9952101729963012e+00 -3.0068652663760931e+00 -5.6239997379956979e+00 0 0 1
180 1 1 -6.8103929972567390e-01 -3.0631371836229264e+00 -5.9122470006083496e+00 1 0 0
1567 4 2 -7.7171487260077045e+00 -1.5527599507869088e+00 -6.1633911277445961e+00 1 0 1
1803 3 2 -6.5653972822934081e+00 -1.5570063811923061e+00 -5.8204881113309561e+00 1 0 1
3154 4 2 -4.9818215070039722e+00 -2.4956662699469279e+00 -6.2304398494076487e+00 1 0 1
1774 4 2 -3.9042225067390826e+00 -1.8760934515779037e+00 -5.7063050979253820e+00 0 0 1
1778 3 2 -2.2587743986102313e+00 -2.1043043952652196e+00 -5.5647818496946755e+00 0 0 1
1779 2 2 -1.8246269210111166e+00 -1.7770717280393191e+00 -6.3161676189082998e+00 0 0 1
1804 4 2 -5.6832474604236207e+00 -1.0748019969079601e+00 -5.6156661186201937e+00 1 0 1
1807 4 2 -4.7241567012708598e+00 -1.0786103212124700e+00 -5.5792029667676717e+00 1 0 1
1436 5 2 -2.7020911070108227e+00 -1.1275588604096032e+00 -6.1138846463698897e+00 1 0 1
2165 5 2 -6.1066828836875864e-01 -1.2472268654076584e+00 -6.2863075547569141e+00 0 0 1
1801 1 1 -6.2683439560889669e+00 -2.1952103293915295e-01 -5.9549661200862820e+00 1 0 1
3327 1 3 -5.2032898345534333e+00 -5.9878715571750042e-02 -6.0555768266820156e+00 0 1 1
1438 3 2 -3.7841381836600978e+00 -6.8935932540366163e-01 -6.1227362392237410e+00 1 0 1
59 2 2 -1.3893340070177662e+00 -6.2254994232208305e-01 -5.7927196456964545e+00 1 0 1
2842 2 2 -7.8472186373823787e+00 -7.8723922445679904e+00 -5.2784405986030238e+00 1 1 0
2870 1 1 -6.2816145168140034e+00 -7.4565862000340539e+00 -5.0983098149953010e+00 1 0 1
997 4 2 -5.3355786200287083e+00 -7.7660212429536433e+00 -4.8779959666853232e+00 1 0 1
996 5 2 -4.5762493359144916e+00 -7.2182282932339454e+00 -5.1804491244202895e+00 1 0 1
1765 5 2 -2.3000985634233326e+00 -7.2534415961885781e+00 -5.7075190085023833e+00 1 1 0
1769 2 2 -1.3525204607808217e+00 -7.4415332683717601e+00 -5.1050604486230737e+00 1 1 0
1986 5 2 -3.7966083839228957e+00 -4.7841225375267454e-01 -4.9379953005985894e-01 1 0 1
2866 5 2 -6.0648815012150354e+00 -6.4442220244560424e+00 -4.9615428958700836e+00 1 0 1
1766 5 2 -2.3293595441371933e+00 -6.7757662001322254e+00 -4.8446225324702672e+00 1 1 0
2180 1 1 -1.3681536624112485e+00 -6.4058887928261052e+00 -4.9249278740942408e+00 1 0 1
1770 1 1 -6.9040289727793080e-01 -6.7654349909543114e+00 -5.4779996363459214e+00 1 1 0
543 3 2 -7.2835029635970434e+00 -5.9035545193866668e+00 -5.3446528927983028e+00 1 1 1
2864 4 2 -5.7313232895833872e+00 -5.4619898105317253e+00 -5.1357784621493456e+00 1 0 1
993 3 2 -4.0851172363459973e+00 -6.3359728575825773e+00 -5.0306827961678042e+00 1 0 1
3226 1 3 -3.0535307021024529e+00 -6.1694656339556166e+00 -5.2879347147550586e+00 1 0 1
2311 1 1 -1.0133234396617903e+00 -5.4726125372409271e+00 -5.2657240902132916e+00 1 1 0
546 5 2 -7.4078477401561615e+00 -4.8724009105384534e+00 -4.8735270132922883e+00 1 1 1
2863 3 2 -4.9084227176474284e+00 -4.8965050556946457e+00 -4.8878768372710519e+00 1 0 1
2560 1 1 -3.8345610396148357e+00 -5.0795685411446891e+00 -5.1054509302112567e+00 1 0 1
2941 1 1 -2.3786329691593289e+00 -5.7062576091554176e+00 -5.0331324709302159e+00 1 1 1
3160 1 1 -6.1312818294724298e+00 -4.4982590061034822e+00 -5.4359193615625445e+00 1 0 1
3230 1 3 -1.2954116411455974e+00 -4.6851252275896451e+00 -5.5527893700362672e+00 0 0 1
3156 5 2 -4.9214637970812714e+00 -3.8922492383048435e+00 -5.4288658462844674e+00 1 0 1
2509 2 2 -2.6528520428502693e+00 -3.3847706509356454e+00 -5.1663298225229584e+00 0 0 1
179 2 2 -1.1148505169713276e+00 -3.5937292939808612e+00 -5.2185932164716862e+00 1 0 0
178 3 2 -1.6074439760770998e-01 -3.8783736655922270e+00 -5.2408451868308292e+00 1 0 0
3152 2 2 -5.5492473990328284e+00 -2.9912331802959709e+00 -5.1351687867362568e+00 1 0 1
1775 5 2 -3.4708477835717053e+00 -2.5325469759024388e+00 -5.2178736241392034e+00 0 0 1
2721 1 1 -7.2505629860090233e+00 -1.9072135028835704e+00 -5.0315765917815485e+00 1 0 0
2722 2 2 -6.3176475780767962e+00 -1.7499195121371209e+00 -4.7791842360961496e+00 1 0 0
3153 3 2 -5.2962156952007611e+00 -2.0792040600273447e+00 -5.3717971932715063e+00 1 0 1
1519 2 2 -4.4557644106381398e+00 -2.2616920535155058e+00 -4.6842271374201481e+00 1 0 1
2489 2 2 -1.1212766367228255e+00 -2.1586787338296469e+00 -5.4537468497156363e+00 1 0 1
409 2 2 -4.4678587837634051e-02 -2.4478326470867988e+00 -5.4521838000064387e+00 1 0 1
1802 2 2 -6.6308663475929910e+00 -7.9141422318713839e-01 -5.1865895189344133e+00 1 0 1
1520 1 1 -4.3657946257033222e+00 -1.3239088518660060e+00 -4.6354611696317809e+00 1 0 1
1437 4 2 -3.3141656154698058e+00 -1.0232975265466173e+00 -5.3805105719622421e+00 1 0 1
1777 4 2 -2.4156091060991138e+00 -1.5027250474880443e+00 -4.8172038670011439e+00 0 0 1
2490 1 1 -8.4979947858297922e-01 -1.2568507362894077e+00 -5.1936468851916180e+00 1 0 1
1805 5 2 -5.6704536287900469e+00 -1.8071632334265916e-01 -5.1628930205942485e+00 1 0 1
1439 2 2 -4.1798507489224885e+00 -2.2533753348536556e-01 -5.4048705316904719e+00 1 0 1
58 3 2 -2.1178126845351839e+00 -5.4782986653734234e-01 -5.1585135235092130e+00 1 0 1
240 1 1 -3.9692213365265481e+00 -2.3064112981333045e+00 -7.8936523725130483e+00 1 0 1
1070 1 1 -5.7861214723626198e+00 -7.1705010192829741e+00 -4.0504050992118819e+00 1 0 0
995 5 2 -4.5890592369150367e+00 -6.9609302802587223e+00 -4.2343326410455608e+00 1 0 1
1761 1 1 -3.9159300136576460e+00 -7.8150666665125579e+00 -4.5228140791304190e+00 1 1 0
1767 4 2 -2.0534045796618545e+00 -7.3797473410066399e+00 -4.1805660107621332e+00 1 1 0
2410 1 1 -5.0754458119348032e+00 -8.5137912243562774e-01 -1.2407114664307475e-01 1 0 0
108 3 2 -3.9410980128249036e+00 -1.1852982211041360e-01 -4.4141342535040318e+00 1 0 0
549 2 2 -7.2976055430600546e+00 -6.3845753039928388e+00 -4.3168304478298447e+00 1 1 1
2865 5 2 -6.5766618877487097e+00 -5.6482695507785969e+00 -4.7184303611315386e+00 1 0 1
994 4 2 -5.0507508287736886e+00 -6.3220542287148689e+00 -4.7871136261984306e+00 1 0 1
992 2 2 -3.4994710074697970e+00 -6.2674660292704552e+00 -4.3478037767459581e+00 1 0 1
991 1 1 -2.9335418309500136e+00 -5.5130800786768708e+00 -4.1690947646485403e+00 1 0 1
2179 2 2 -7.1275019078230484e-01 -5.8937465103433828e+00 -4.3471060230434029e+00 1 0 1
1953 3 2 -5.8684966849616123e+00 -4.7123891583902076e+00 -4.4128452282067219e+00 1 0 0
2862 2 2 -4.3509263919226076e+00 -5.5743957550014338e+00 -4.4674370635025591e+00 1 0 1
2942 2 2 -2.7192237452832386e+00 -4.8061458538090802e+00 -5.0145196541111980e+00 1 1 1
643 3 2 -1.5221764682964947e+00 -5.3788042397616778e+00 -3.7391153042379845e+00 1 0 1
642 2 2 -8.2014883651712178e-01 -4.9175673862596829e+00 -4.2724471915986193e+00 1 0 1
1952 2 2 -6.5774574838694280e+00 -4.0572077769949635e+00 -4.6409904496366492e+00 1 0 0
2946 5 2 -4.6701685414000327e+00 -4.3828653791642394e+00 -4.1164309278939992e+00 1 1 1
2945 5 2 -3.7760594978395869e+00 -4.6522377223604279e+00 -4.1172368089922617e+00 1 1 1
2943 3 2 -2.7087120709951260e+00 -4.4349490359475991e+00 -4.1954727137265744e+00 1 1 1
641 1 1 -1.4445485468032448e+00 -4.3649396372409877e+00 -4.7028217389091793e+00 1 0 1
1951 1 1 -7.5115134002139765e+00 -3.8067360652287259e+00 -4.9215062311955000e+00 1 0 0
1511 1 1 -4.3653843596105446e+00 -3.4489782099532977e+00 -4.5896381392177368e+00 1 0 1
2944 4 2 -3.4418159272654556e+00 -4.0141145028658709e+00 -4.7354338537989387e+00 1 1 1
650 1 1 -2.9106250612879498e+00 -3.2969652056560870e+00 -3.8197552334521698e+00 1 0 1
404 4 2 -5.0131836000642771e-01 -3.3899034364628871e+00 -4.2904833687503432e+00 1 0 1
438 3 2 -7.2259411673509639e+00 -2.6030134891904289e+00 -4.4036309515535539e+00 1 0 0
3151 1 1 -6.1179419645259800e+00 -2.9846071458661250e+00 -4.4025324312254090e+00 1 0 1
1514 4 2 -3.6187849721847889e+00 -2.6215164173244969e+00 -4.2067379517451764e+00 1 0 1
401 1 1 -1.6159692451568497e+00 -3.1461003520545479e+00 -4.2544714852351859e+00 1 0 1
1776 5 2 -3.3496146920367962e+00 -1.7014708574426984e+00 -4.6467507268986896e+00 0 0 1
2486 5 2 -2.3411874808941846e+00 -2.4400286857151761e+00 -4.0691076645889419e+00 1 0 1
2488 3 2 -1.3789106080734146e+00 -2.0366471663980672e+00 -4.5328567554887638e+00 1 0 1
408 3 2 -1.6899904927614684e-01 -2.1303427716643242e+00 -4.5733904272219226e+00 1 0 1
2729 2 2 -7.6091630161296946e+00 -1.0264394136027457e+00 -4.1722580912773966e+00 1 0 0
2723 3 2 -6.2846440703611641e+00 -1.1119147411875503e+00 -4.0592367000365437e+00 1 0 0
1806 5 2 -5.3006925712534310e+00 -9.7811291986705384e-01 -4.7550061408335544e+00 1 0 1
1646 5 2 -1.4719612643875644e+00 -8.9976954254499508e-01 -4.1383111852116787e+00 0 0 1
2361 1 1 -4.1270745974268536e-01 -7.9199461865321021e+00 -2.0307334827385439e+00 1 0 0
2724 4 2 -6.4781385508031359e+00 -1.4290080078858858e-01 -4.2984030726397071e+00 1 0 0
107 4 2 -4.8648099889013485e+00 -8.4378116974139581e-03 -4.6276840797502219e+00 1 0 0
2484 4 2 -2.6372199562183316e+00 -7.2349851545673771e-01 -4.2781086978409544e+00 1 0 1
1645 5 2 -9.4302186191513027e-01 -3.3227913282396948e-01 -4.6534427947097452e+00 0 0 1
201 1 1 -7.0860239098279800e+00 -7.7170755399559603e+00 -3.5328578649763775e+00 1 0 1
2173 3 2 -3.9991415167611315e+00 -7.5527432903500165e+00 -3.5081430534185807e+00 1 0 1
2174 4 2 -3.2370021055340166e+00 -7.1824842461122254e+00 -3.8233813458438610e+00 1 0 1
202 2 2 -6.7218484691330254e+00 -6.8300075787654686e+00 -3.4224219560874514e+00 1 0 1
2171 1 1 -5.2642322771451564e+00 -6.8689795883403431e+00 -3.2385530386598806e+00 1 0 1
2175 5 2 -2.3882940420373688e+00 -6.8219709608094634e+00 -3.3543283884761128e+00 1 0 1
2176 5 2 -1.5370635754392583e+00 -6.4524485943263636e+00 -3.6041346469487414e+00 1 0 1
2178 3 2 -7.2328969660969411e-01 -6.8286398337828453e+00 -4.2207444825854594e+00 1 0 1
550 1 1 -7.6088351676157551e+00 -5.7659812966576496e+00 -3.6791708516552104e+00 1 1 1
1955 5 2 -5.6794964931924481e+00 -5.9472951706592330e+00 -3.7251321197763163e+00 1 0 0
2861 1 1 -4.4164410733593549e+00 -5.9919180818216686e+00 -3.6099851710241264e+00 1 0 1
2177 4 2 -6.6204051693086163e-01 -6.5827095664711388e+00 -3.2971692244264670e+00 1 0 1
1954 4 2 -6.1996904218937772e+00 -5.0957447660676856e+00 -3.5636080287814611e+00 1 0 0
644 4 2 -1.8102501518523135e+00 -4.9301468673986273e+00 -2.9206010179620754e+00 1 0 1
3206 1 3 -4.7260297486558051e-01 -5.1175936532574582e+00 -3.2230577313263971e+00 1 1 1
580 1 1 -7.4222618483965110e+00 -4.5167601255588883e+00 -3.5279116321414228e+00 1 0 1
2947 4 2 -5.4558065840152157e+00 -4.1373795945554148e+00 -3.5380570679963985e+00 1 1 1
436 5 2 -6.9974099685804925e+00 -3.5131515673560201e+00 -3.9325598827431847e+00 1 0 0
1512 2 2 -4.7671112629068215e+00 -3.3155819104068271e+00 -3.7052709901334251e+00 1 0 1
1513 3 2 -3.8421601315817195e+00 -3.4258662299263860e+00 -3.6395777184448193e+00 1 0 1
649 2 2 -2.4921785706031718e+00 -2.9871354960016845e+00 -2.9748016037482596e+00 1 0 1
402 2 2 -1.9077813277433961e+00 -3.8995494899641447e+00 -3.7528786304637394e+00 1 0 1
403 3 2 -9.6898477961947582e-01 -4.0812324735084422e+00 -3.7427667655764187e+00 1 0 1
76 5 2 -2.8109992306685044e-01 -3.2466424036319147e-01 -3.9332218788640788e-01 0 0 1
435 5 2 -7.6853182434768579e+00 -3.0209854549052126e+00 -3.5359061754564562e+00 1 0 0
437 4 2 -6.7406703111065758e+00 -2.6638735048775857e+00 -3.6010952360997992e+00 1 0 0
405 5 2 -6.7954955303741416e-01 -2.8003340747715577e+00 -3.5508059178220539e+00 1 0 1
2730 1 1 -7.4019932139000808e+00 -1.8217465944692111e+00 -3.6755422881142614e+00 1 0 0
1518 3 2 -4.9789787722999419e+00 -1.9290555504002909e+00 -3.9375481701926658e+00 1 0 1
1515 5 2 -3.7840855299462950e+00 -2.4454769059512866e+00 -3.2821695799788912e+00 1 0 1
1516 5 2 -3.8881358690331971e+00 -1.5624560054730279e+00 -3.7156789632719165e+00 1 0 1
2487 4 2 -1.6022131395296353e+00 -2.1150971781304926e+00 -3.5840943144656601e+00 1 0 1
407 4 2 -5.2246093857424192e-01 -1.7035353113835732e+00 -3.7754122526034659e+00 1 0 1
3178 3 2 -7.0289543895021138e+00 -9.3975776531415478e-01 -3.3602524877264530e+00 1 -1 1
1517 4 2 -4.6675853805373118e+00 -1.0472784759340168e+00 -3.6144370076416052e+00 1 0 1
2481 1 1 -3.3910198575086627e+00 -6.9915603164903073e-01 -3.3648651723136260e+00 1 0 1
2485 5 2 -2.6394321730798298e+00 -1.6106496769342278e+00 -3.8121645759018818e+00 1 0 1
1647 4 2 -1.2614759330377341e+00 -1.1481075086898394e+00 -3.2299422718114714e+00 0 0 1
2716 5 2 -5.4303350136457418e+00 -3.2609726647912368e-01 -3.7259244827177742e+00 0 0 1
2482 2 2 -2.4266777280355964e+00 -4.2970289778738840e-01 -3.2866310929833684e+00 1 0 1
2350 1 1 -9.7435360959991468e-01 -1.4486253356868295e-01 -3.6587876621050102e+00 1 0 1
2349 2 2 -5.3594479717618659e-02 -3.9083017227310435e-01 -3.5349189199253237e+00 1 0 1
2172 2 2 -4.8897335328042066e+00 -7.6742940799934223e+00 -3.1087030032867458e+00 1 0 1
2623 3 2 -2.3451875745961597e+00 -7.5929026781258084e+00 -2.7490305632633771e+00 1 1 1
794 4 2 -3.6357819283332776e-01 -7.8645370024026269e+00 -5.3365425915343039e+00 0 0 1
1707 4 2 -7.1807033552526905e-02 -7.1280472353589861e+00 -2.6858054293231404e+00 0 0 1
203 3 2 -6.2628155818591287e+00 -7.2229979272668254e+00 -2.6905985821702303e+00 1 0 1
488 3 2 -4.3881425755398320e+00 -6.9738345472976402e+00 -2.5100454160854548e+00 1 0 0
489 2 2 -3.8974449069354042e+00 -6.1749747506219617e+00 -2.6432005700463632e+00 1 0 0
206 5 2 -7.6198112253137831e+00 -6.0041949252713556e+00 -2.6598095174056189e+00 1 0 1
204 4 2 -6.5149970425407302e+00 -6.3240825540471457e+00 -2.4536043728573129e+00 1 0 1
1956 5 2 -5.6018046040878291e+00 -6.0123320817754822e+00 -2.7619564297440578e+00 1 0 0
1702 2 2 -2.2958997437804838e+00 -5.8640086168013781e+00 -2.7764899669120511e+00 0 0 1
2366 5 2 -8.9366576978446277e-01 -5.7071117440043935e+00 -2.4202520300511861e+00 1 0 0
1468 3 2 -4.7315741392554802e+00 -7.8043670669552405e+00 -7.1151073905823612e+00 0 1 1
205 5 2 -6.8355756983700777e+00 -5.4734057763837720e+00 -2.6705453907589898e+00 1 0 1
1958 3 2 -5.7035285455618174e+00 -4.9525231426587641e+00 -2.4319458294375709e+00 1 0 0
1957 4 2 -5.1352637958522926e+00 -5.2445257942471715e+00 -3.1287052002596427e+00 1 0 0
2294 4 2 -4.0680379965448141e+00 -5.1951713976012961e+00 -2.2586013393440654e+00 1 0 1
2292 2 2 -2.9647894849989336e+00 -5.0559236897987372e+00 -3.1369029789345495e+00 1 0 1
3339 1 3 -6.6906247262159502e+00 -4.4221517066315057e+00 -2.9717892352575230e+00 1 0 0
2949 2 2 -4.4327511781203386e+00 -4.2946664142716671e+00 -3.1662841725925017e+00 1 1 1
2291 1 1 -3.3969683624650635e+00 -4.1972487084406751e+00 -3.1120534261350770e+00 1 0 1
645 5 2 -2.3651049483797064e+00 -4.2031964265220481e+00 -2.8583381199810813e+00 1 0 1
434 4 2 -7.5252100843725405e+00 -3.7156446155523568e+00 -2.8744186028256689e+00 1 0 0
162 2 2 -6.6855120735147713e+00 -3.4527101935647413e+00 -2.3472903432122734e+00 1 0 1
161 1 1 -6.0659296968910681e+00 -3.3088962817501284e+00 -3.1278843270549426e+00 1 0 1
2948 3 2 -5.0979028860834505e+00 -3.7684994709819635e+00 -2.7458726011662105e+00 1 1 1
2950 1 1 -4.0567774712655043e+00 -3.6806574863149359e+00 -2.4783244393226838e+00 1 1 1
1492 2 2 -1.4345480948570684e+00 -3.7688128472715188e+00 -2.1617981393721153e+00 1 0 0
1497 4 2 -4.3950300071879178e-01 -3.3568460418555750e+00 -2.6032627783382885e+00 1 0 0
648 3 2 -2.5969071079639949e+00 -2.1797713407697388e+00 -2.5968618925368356e+00 1 0 1
1491 1 1 -1.3806016156783953e+00 -2.8689214839677533e+00 -2.5901683446133896e+00 1 0 0
3236 1 3 -6.9172392167878129e+00 -2.2368147870904220e+00 -2.6926600994122065e+00 1 1 0
406 5 2 -8.2489553192077136e-01 -2.1006322742393078e+00 -2.8795339719575064e+00 1 0 1
3177 4 2 -7.6399750683567786e+00 -7.7420265905656283e-01 -2.6162796585434593e+00 1 -1 1
3179 2 2 -6.1025620667568035e+00 -1.2196023157552800e+00 -2.9635043614283783e+00 1 -1 1
3297 1 3 -5.1510811153072007e+00 -1.8693196395497194e+00 -2.8463893727209664e+00 1 0 1
170 1 1 -3.8800268108884697e+00 -1.2145914235596664e+00 -2.6674095841175904e+00 1 0 1
2061 1 1 -2.4920678301301105e+00 -1.0716269406937782e+00 -2.3140206183306522e+00 1 0 0
1648 3 2 -7.3053260709067247e-01 -7.8489767174681269e-01 -2.5521830490033048e+00 0 0 1
2717 4 2 -5.8368738235773208e+00 -1.8821737822393597e-01 -2.7758294515177924e+00 0 0 1
2712 2 2 -4.9378510810009866e+00 -6.6857116521061644e-01 -2.4432676851689679e+00 0 0 1
1200 1 1 -7.6331188548826896e+00 -4.1025741512622488e-01 -5.4058763996183690e-01 2 0 1
1063 3 2 -5.6079203883008706e+00 -7.2999444233220476e+00 -1.6712755006538877e+00 1 0 0
2362 2 2 -9.5701395481506835e-01 -7.4904766539687815e+00 -1.3755580887641752e+00 1 0 0
2059 2 2 -7.2410062692691577e+00 -7.0950805800333798e+00 -2.2275690165155666e+00 1 0 0
490 1 1 -3.2642385804404399e+00 -6.5935509230651617e+00 -2.0603433425624882e+00 1 0 0
1703 3 2 -2.1327441964725011e+00 -6.6710698494490339e+00 -2.3060391881801929e+00 0 0 1
1705 5 2 -1.1305884923714691e+00 -6.8456246322363929e+00 -2.2476986096927383e+00 0 0 1
1706 5 2 -2.4443833634627254e-01 -6.5873034095174843e+00 -1.9468782080336122e+00 0 0 1
1893 3 2 -7.1107714148338728e+00 -6.0760287138112021e+00 -1.6808136270431102e+00 1 1 0
487 4 2 -4.9030222312664113e+00 -6.2751238446537059e+00 -2.1729750555274894e+00 1 0 0
2365 5 2 -9.8989627144649051e-01 -5.4897486762053882e+00 -1.4214863064422096e+00 1 0 0
3209 1 3 -7.1427518000911103e+00 -4.7815723400842067e+00 -1.7527238657244104e+00 1 1 1
2293 3 2 -3.1086813381954825e+00 -5.3639695335819333e+00 -2.2148422945556154e+00 1 0 1
1701 1 1 -1.9817066872947493e+00 -5.4050571044260947e+00 -1.9811054955681935e+00 0 0 1
1959 2 2 -5.3558814094943283e+00 -4.2622728394186868e+00 -1.8279272926657728e+00 1 0 0
2295 5 2 -4.0175033592172866e+00 -4.4140308435588267e+00 -1.7645454170885779e+00 1 0 1
646 5 2 -2.8479002566356244e+00 -3.7815963561810255e+00 -2.1599345314243563e+00 1 0 1
1493 3 2 -8.9134321383940052e-01 -4.4950281829100005e+00 -2.0663321302772775e+00 1 0 0
854 4 2 -1.1978024699524223e+00 -1.0205711503744332e+00 -3.3387643631109759e-01 1 -1 0
2681 1 1 -7.6593664138841984e+00 -3.7455340703549846e+00 -1.8147040377170496e+00 1 0 1
163 3 2 -6.6485697068499885e+00 -3.8936421796626828e+00 -1.4563238640884100e+00 1 0 1
1960 1 1 -4.9468916587030725e+00 -3.4854862365448960e+00 -1.4713624401343806e+00 1 0 0
2682 2 2 -7.6110735538513126e+00 -2.7616664676452078e+00 -1.8167733416879399e+00 1 0 1
167 4 2 -5.1374166409353625e+00 -2.6368490347984896e+00 -2.2272502700589012e+00 1 0 1
168 3 2 -4.2059017385021251e+00 -2.3540086193793943e+00 -2.3294746401348383e+00 1 0 1
647 4 2 -3.2517432077469972e+00 -2.9829234151290231e+00 -2.3563404658310412e+00 1 0 1
3347 1 3 -2.4838161581606930e+00 -3.0141893424959330e+00 -1.4901424518409636e+00 1 0 1
3176 5 2 -7.7844063095409286e+00 -1.6632611200349401e+00 -2.3639761947280600e+00 1 -1 1
3180 1 1 -6.1048919226968978e+00 -1.9296714564943220e+00 -2.2675017457056876e+00 1 -1 1
169 2 2 -4.5231199760957974e+00 -1.5217181753002422e+00 -2.0425995492309461e+00 1 0 1
1085 5 2 -3.4547636186105231e+00 -1.8203972432911359e+00 -1.8612880833567591e+00 1 0 0
2062 2 2 -1.6868505146968866e+00 -1.5996166746768010e+00 -2.2891160517858333e+00 1 0 0
2063 3 2 -8.0051216891006971e-01 -1.5674184800567308e+00 -1.9380532282712737e+00 1 0 0
2720 1 1 -6.6882385267148940e+00 -1.1700152545389599e+00 -1.7232462673183255e+00 0 0 1
2711 1 1 -5.6539704545527778e+00 -1.0882531897028751e+00 -1.9576049108533586e+00 0 0 1
1649 2 2 -2.7512762698900067e-01 -7.1092094945399831e-01 -1.6684254977544075e+00 0 0 1
3247 1 3 -7.3630055440388702e+00 -6.6059442926732048e-01 -1.4722449930773178e+00 1 0 0
2719 2 2 -6.3009685154860140e+00 -4.0726879977009633e-01 -1.9415615392732262e+00 0 0 1
2713 3 2 -4.3371167932441548e+00 -4.9690947666434648e-01 -1.7355995093749239e+00 0 0 1
856 5 2 -1.5274832293675706e+00 -4.1852036475596210e-01 -1.8653454326910364e+00 1 -1 0
2058 3 2 -7.6702527057841436e+00 -7.1969769230996556e+00 -1.3843710935646776e+00 1 0 0
1891 1 1 -6.7121927430099593e+00 -7.6834387239256747e+00 -1.3279371420978401e+00 1 1 0
3267 1 3 -4.1387036478548334e+00 -7.3282894814399659e+00 -7.9868080113261164e-01 1 0 2
2441 1 1 -2.5567085796480264e+00 -7.3456620565570505e+00 -1.5441408877088643e+00 1 1 0
1568 3 2 -7.8889625889508297e+00 -2.3987763912908013e+00 -5.7933755820840576e+00 1 0 1