LAMMPS data file via write_data, version 22 Jul 2014, timestep = 1000

8 atoms
6 bonds
4 angles
2 dihedrals

4 atom types
2 bond types
2 angle types
2 dihedral types

2 extra bond per atom
10 extra special per atom

-10.0 10.0 xlo xhi
-10.0 10.0 ylo yhi
-10.0 10.0 zlo zhi

Masses

1 1
2 1 
3 1 
4 1 

Atoms # full

1 1 1 -1.0 0.0 1.0 0.0
2 1 2  0.0 0.0 2.0 0.0
3 1 3  0.0 0.0 3.0 0.0
4 1 4  1.0 0.0 4.0 0.0
5 2 1 -1.0 0.0 4.0 3.0
6 2 2  0.0 0.0 3.0 3.0
7 2 3  0.0 0.0 2.0 3.0
8 2 4  1.0 0.0 1.0 3.0

Bonds

1 1 1 2
2 1 2 3
3 1 3 4
4 1 5 6
5 1 6 7
6 1 7 8

Angles

1 1 1 2 3
2 1 2 3 4
3 1 5 6 7
4 1 6 7 8

Dihedrals

1 1 1 2 3 4
2 1 5 6 7 8
